           6
 Step:          99 Time (fs):   7.1840862594544891E-002
 O    4.8112783432025401E-002  0.32819122749370461       -1.3292765072049302     
 O   -4.6725959017298015E-002 -0.34374125252868493        1.4365614334257049     
 H  -0.34467069801329386       0.90946166920110327       -2.0293618857502529     
 H   0.74537820930289322      -0.21777810638946399       -1.4479993621755465     
 H  -0.82843886290302371      -0.69284633243475635        1.0059233763273159     
 H   0.40569145729282263       0.24806131848574967       0.76817172445174853     
           6
 Step:         199 Time (fs):  0.14440739046782256     
 O    4.8090776965502638E-002  0.32820647182986812       -1.3292662887166824     
 O   -4.6716483058538073E-002 -0.34374003155048394        1.4365742265816435     
 H  -0.34461030243746860       0.90941955381800643       -2.0293795912823778     
 H   0.74568720373445785      -0.21799133809503982       -1.4481668560857479     
 H  -0.82864746809107293      -0.69294033076779016        1.0058103015984861     
 H   0.40574241690053303       0.24815450684382656       0.76804258366850986     
           6
 Step:         299 Time (fs):  0.21697391834110022     
 O    4.8054865344627794E-002  0.32823023070082086       -1.3292441619080859     
 O   -4.6701677627004549E-002 -0.34373909561918503        1.4365977817500706     
 H  -0.34451031490410505       0.90934514393113774       -2.0293826461445001     
 H   0.74620144505804498      -0.21834645052240090       -1.4484393770610626     
 H  -0.82901153648299142      -0.69310452378869380        1.0056131322036022     
 H   0.40583980049043045       0.24833228619811301       0.76779222342892861     
           6
 Step:         399 Time (fs):  0.28954044621437791     
 O    4.8004674995044558E-002  0.32826402247652281       -1.3292121929345413     
 O   -4.6680984082573714E-002 -0.34373821207272365        1.4366316108539317     
 H  -0.34437328858285893       0.90924834104949226       -2.0293827059055385     
 H   0.74691059464948484      -0.21883303076862734       -1.4488193592202494     
 H  -0.82954321018114296      -0.69334290340538884        1.0053194845058393     
 H   0.40599787550080979       0.24860773101826333       0.76741549379753615     
           6
 Step:         499 Time (fs):  0.36210697408765558     
 O    4.7940600463978175E-002  0.32830736299969343       -1.3291700181243169     
 O   -4.6655945282911900E-002 -0.34373839954358548        1.4366752326806578     
 H  -0.34419886893702595       0.90912716069405197       -2.0293789942318643     
 H   0.74780506990365259      -0.21944672252126202       -1.4492992431232288     
 H  -0.83019438587995809      -0.69363688624588249        1.0049659220824390     
 H   0.40618150456124980       0.24893651859755206       0.76695561115660937     
           6
 Step:         599 Time (fs):  0.43467350196093318     
 O    4.7862831559750817E-002  0.32835974158248887       -1.3291192474820763     
 O   -4.6624562588336041E-002 -0.34373673016190759        1.4367265404139320     
 H  -0.34398387524900303       0.90897908774384784       -2.0293762451997606     
 H   0.74889563260337400      -0.22019532242088408       -1.4498834083351388     
 H  -0.83100888600876832      -0.69400214326448995        1.0045154285889819     
 H   0.40641884461464906       0.24935527897427759       0.76637115402410316     
           6
 Step:         699 Time (fs):  0.50724002983421079     
 O    4.7771051841838476E-002  0.32842124453074523       -1.3290607115905768     
 O   -4.6587216556685039E-002 -0.34373490933855555        1.4367880385297951     
 H  -0.34373007807496608       0.90880695462084160       -2.0293855417576268     
 H   0.75019056910620319      -0.22108506063077293       -1.4505792590947395     
 H  -0.83196336900310619      -0.69443429159877024        1.0039892168360487     
 H   0.40669339675177618       0.24983482836329474       0.76570107300083534     
           6
 Step:         799 Time (fs):  0.57980655770748846     
 O    4.7665600343397847E-002  0.32849222194110561       -1.3289935250511835     
 O   -4.6544787117107932E-002 -0.34373272916965442        1.4368575574509863     
 H  -0.34343706914095518       0.90860810638804224       -2.0294009122038585     
 H   0.75167506833636055      -0.22210581389642395       -1.4513835854190236     
 H  -0.83303166997574418      -0.69491897889230669        1.0034038657454667     
 H   0.40698555724991470       0.25036182964309039       0.76495504674182413     
           6
 Step:         899 Time (fs):  0.65237308558076612     
 O    4.7547398439418069E-002  0.32857194237856224       -1.3289189557851415     
 O   -4.6495973109936341E-002 -0.34372848533492001        1.4369343884478509     
 H  -0.34310008962763228       0.90837871714411678       -2.0294222472781827     
 H   0.75333616068430298      -0.22324725143427396       -1.4522950707818219     
 H  -0.83424960822890837      -0.69546889244019938        1.0027282193159610     
 H   0.40732830216204563       0.25096989171054562       0.76410272693634573     
           6
 Step:         999 Time (fs):  0.72493961345404379     
 O    4.7416383889554561E-002  0.32865995137690812       -1.3288350052129776     
 O   -4.6443549276125262E-002 -0.34372440628162304        1.4370181013554266     
 H  -0.34272434623159859       0.90812295153523803       -2.0294443575394085     
 H   0.75517017636866846      -0.22450604533195709       -1.4533091564227250     
 H  -0.83561563750156098      -0.69609141668786478        1.0019688104500113     
 H   0.40771161316637883       0.25164600929185027       0.76313683347790862     
           6
 Step:        1099 Time (fs):  0.79750614132732145     
 O    4.7273907470118504E-002  0.32875489449961404       -1.3287398783402662     
 O   -4.6385490817503747E-002 -0.34372079242365350        1.4371131212729611     
 H  -0.34231339235270025       0.90784615929830559       -2.0294699994413494     
 H   0.75716704339597629      -0.22587468578721981       -1.4544214252685159     
 H  -0.83707537185682879      -0.69675934824630903        1.0011624139284714     
 H   0.40811592172698818       0.25237555729351097       0.76209449828428899     
           6
 Step:        1199 Time (fs):  0.87007266920059911     
 O    4.7120200601338529E-002  0.32885734471941963       -1.3286349990277744     
 O   -4.6322565788474337E-002 -0.34371611101648214        1.4372160181210130     
 H  -0.34186908140985794       0.90755272303223011       -2.0295022793424766     
 H   0.75931987638993370      -0.22734489860495774       -1.4556301991464549     
 H  -0.83867800186255070      -0.69748661777382237        1.0002665193819240     
 H   0.40856541581852313       0.25318270251319425       0.76094239920654771     
           6
 Step:        1299 Time (fs):  0.94263919707387678     
 O    4.6955492361289125E-002  0.32896614418134251       -1.3285199383742146     
 O   -4.6255590815259012E-002 -0.34371137084635361        1.4373262654005590     
 H  -0.34139267568207043       0.90723767667897437       -2.0295360498399639     
 H   0.76162563441477449      -0.22891426411586005       -1.4569382506200965     
 H  -0.84040121781432275      -0.69827466953836004       0.99931071864166299     
 H   0.40904017149759214       0.25403923321255029       0.75970445047041835     
           6
 Step:        1399 Time (fs):   1.0152057249471544     
 O    4.6780247792519054E-002  0.32908157304321650       -1.3283974157301424     
 O   -4.6183555642003424E-002 -0.34370539838019409        1.4374440671041138     
 H  -0.34087794218295092       0.90689685351322846       -2.0295825835567780     
 H   0.76408030939303906      -0.23058158823959063       -1.4583460518102165     
 H  -0.84223784091027587      -0.69911563916466302       0.99828530772254631     
 H   0.40954388177680617       0.25495211323881645       0.75838236289993155     
           6
 Step:        1499 Time (fs):   1.0877722528204321     
 O    4.6594795933790054E-002  0.32920332658042145       -1.3282667948864617     
 O   -4.6105334958593182E-002 -0.34369784916392387        1.4375659391195403     
 H  -0.34032413391756566       0.90653150477921807       -2.0296402603052983     
 H   0.76667159007934227      -0.23233732227043294       -1.4598522164514416     
 H  -0.84418545980955451      -0.70000543366561652       0.99719481259187270     
 H   0.41007060036983001       0.25591854095544297       0.75697744661715438     
           6
 Step:        1599 Time (fs):   1.1603387806937098     
 O    4.6400063601154617E-002  0.32933083484647596       -1.3281280624518144     
 O   -4.6025087185944655E-002 -0.34369076789523184        1.4376963469545854     
 H  -0.33973731415538733       0.90614860654891471       -2.0297128112847793     
 H   0.76938404342632005      -0.23416897100053163       -1.4614574009785495     
 H  -0.84624656050245284      -0.70094739030827513       0.99605185494211712     
 H   0.41062150100712058       0.25693469457243334       0.75550147249712785     
           6
 Step:        1699 Time (fs):   1.2329053085669874     
 O    4.6197495816201181E-002  0.32946312375487130       -1.3279805707143797     
 O   -4.5939880290866826E-002 -0.34368286415950866        1.4378341779845760     
 H  -0.33911644692004173       0.90574923110993100       -2.0298001390324245     
 H   0.77221392895506735      -0.23607568245985142       -1.4631577268804696     
 H  -0.84838955339631128      -0.70192959364850682       0.99485371229899133     
 H   0.41119884316065453       0.25800154078474941       0.75393334909341325     
           6
 Step:        1799 Time (fs):   1.3054718364402651     
 O    4.5987574186110929E-002  0.32959930254048120       -1.3278229722271064     
 O   -4.5851473512483441E-002 -0.34367480936915151        1.4379757300816647     
 H  -0.33846196052966238       0.90533377638869628       -2.0298957029128877     
 H   0.77515452866221535      -0.23805475973759585       -1.4649445108728343     
 H  -0.85063586320383677      -0.70295968680623799       0.99359611372050105     
 H   0.41180006252858137       0.25913003830496228       0.75227223310500912     
           6
 Step:        1899 Time (fs):   1.3780383643135428     
 O    4.5770257490616167E-002  0.32973875477929787       -1.3276546451644635     
 O   -4.5761271288027455E-002 -0.34366720492779124        1.4381236263496597     
 H  -0.33777720847666998       0.90490410454227532       -2.0300004523854067     
 H   0.77818326368796642      -0.24008884181768614       -1.4668144646157828     
 H  -0.85298868236422454      -0.70403236116587031       0.99227691415039787     
 H   0.41242244091665103       0.26030975342475715       0.75053483074731586     
           6
 Step:        1999 Time (fs):   1.4506048921868204     
 O    4.5545290214161691E-002  0.32988257219455419       -1.3274784013131484     
 O   -4.5664932296139361E-002 -0.34365837899005963        1.4382806040618186     
 H  -0.33706398346637501       0.90446632312158193       -2.0301199715515197     
 H   0.78129534765798536      -0.24217014742049858       -1.4687714329604833     
 H  -0.85540056666156450      -0.70513127990255220       0.99092302804957610     
 H   0.41305189706555018       0.26152217511150982       0.74873360641383069     
           6
 Step:        2099 Time (fs):   1.5231714200600981     
 O    4.5314496088272198E-002  0.33002885345022914       -1.3272941900055033     
 O   -4.5564696072341600E-002 -0.34364970362366454        1.4384389795193204     
 H  -0.33631630374624616       0.90400654439306305       -2.0302558122191003     
 H   0.78448960834795933      -0.24429924684574020       -1.4708103460121631     
 H  -0.85790212911741481      -0.70627564957432221       0.98951452165253384     
 H   0.41370085529709794       0.26277867351744788       0.74686416831648117     
           6
 Step:        2199 Time (fs):   1.5957379479333758     
 O    4.5079494470532229E-002  0.33017697011353836       -1.3271013343731028     
 O   -4.5464078442269878E-002 -0.34364014467291892        1.4386027052995209     
 H  -0.33553676285284517       0.90353255924355402       -2.0304065123625938     
 H   0.78775316259843520      -0.24646280620284200       -1.4729303653350756     
 H  -0.86048611141627118      -0.70744522829961354       0.98806879784966972     
 H   0.41435344075913449       0.26408165044622539       0.74492129195344103     
           6
 Step:        2299 Time (fs):   1.6683044758066534     
 O    4.4840128198534092E-002  0.33032670743617615       -1.3269008447305615     
 O   -4.5359984694880978E-002 -0.34363118981074336        1.4387702603042871     
 H  -0.33473553967656722       0.90304860477998927       -2.0305776459111660     
 H   0.79106975178583760      -0.24865009272995489       -1.4751399527158922     
 H  -0.86312350850231945      -0.70864022879601463       0.98658451299024996     
 H   0.41501838302066890       0.26541842800574428       0.74290656481447193     
           6
 Step:        2399 Time (fs):   1.7408710036799311     
 O    4.4596871559424996E-002  0.33047820562501473       -1.3266922599004880     
 O   -4.5253099848685911E-002 -0.34362251572104119        1.4389414289769955     
 H  -0.33390407370077657       0.90255116667686042       -2.0307709658595070     
 H   0.79443357717647622      -0.25085866755170533       -1.4774267425394467     
 H  -0.86582076915050843      -0.70986298376865076       0.98506717627872009     
 H   0.41569555600243130       0.26679273885943899       0.74083019767929770     
           6
 Step:        2499 Time (fs):   1.8134375315532087     
 O    4.4350217857318734E-002  0.33062998890377748       -1.3264749612758067     
 O   -4.5144905527517341E-002 -0.34361372364085990        1.4391164696794121     
 H  -0.33303826953547111       0.90203528039486902       -2.0309782583494544     
 H   0.79783763936589958      -0.25308469699378244       -1.4797809185630646     
 H  -0.86858057103233954      -0.71110561812430784       0.98352225410750338     
 H   0.41637202438698923       0.26820206434445149       0.73869296410601215     
           6
 Step:        2599 Time (fs):   1.8860040594264864     
 O    4.4100452073832772E-002  0.33078230658969310       -1.3262492500128438     
 O   -4.5032810334419728E-002 -0.34360430110215090        1.4392945735890754     
 H  -0.33214517007595312       0.90151344693016888       -2.0312019025415404     
 H   0.80126685839175615      -0.25530895612442817       -1.4822087811110884     
 H  -0.87137753835002996      -0.71236337096482794       0.98194524956483287     
 H   0.41704833080067572       0.26963986434921516       0.73650452185030957     
           6
 Step:        2699 Time (fs):   1.9585705872997641     
 O    4.3848655281006246E-002  0.33093390440756765       -1.3260144574253112     
 O   -4.4921008736330238E-002 -0.34359533533421560        1.4394755401187260     
 H  -0.33122884100638711       0.90099587856640562       -2.0314452415444069     
 H   0.80471093744069500      -0.25752974187999522       -1.4847027266153534     
 H  -0.87423634481446877      -0.71364707792341786       0.98033563803978985     
 H   0.41773975447481515       0.27111500934754290       0.73423942171118040     
           6
 Step:        2799 Time (fs):   2.0311371151730420     
 O    4.3596599521516115E-002  0.33108391047109459       -1.3257709580113759     
 O   -4.4806824271753455E-002 -0.34358709984545915        1.4396585786019711     
 H  -0.33028516464142466       0.90046796531142703       -2.0317092191302235     
 H   0.80816572198546943      -0.25974346655863129       -1.4872624377028987     
 H  -0.87712360064416817      -0.71494053355933895       0.97870553151714745     
 H   0.41842646630462260       0.27260882176114942       0.73192379483128145     
           6
 Step:        2899 Time (fs):   2.1037036430463196     
 O    4.3344126124021796E-002  0.33123378507361961       -1.3255208630451445     
 O   -4.4691369860326256E-002 -0.34357796122121298        1.4398457552720005     
 H  -0.32931234021384664       0.89992694204773027       -2.0319910999937427     
 H   0.81162298095484153      -0.26194073462273465       -1.4898880764146591     
 H  -0.88003336343224370      -0.71624223901207096       0.97706979654527182     
 H   0.41910027171425263       0.27412901339324436       0.72956759015928430     
           6
 Step:        2999 Time (fs):   2.1762701709195973     
 O    4.3090389849743609E-002  0.33138208344478642       -1.3252631590290014     
 O   -4.4575383221596383E-002 -0.34356908708819267        1.4400319724030253     
 H  -0.32831385726350720       0.89937536609657809       -2.0322975751719934     
 H   0.81506312742508868      -0.26411761275318896       -1.4925749338192642     
 H  -0.88296923309438080      -0.71755556737343473       0.97540780215607226     
 H   0.41977706951007604       0.27567153379980747       0.72715131429083435     
           6
 Step:        3099 Time (fs):   2.2488366987928750     
 O    4.2837344224379403E-002  0.33152793923824447       -1.3249983903206417     
 O   -4.4459270457595242E-002 -0.34356102182742981        1.4402198863909779     
 H  -0.32729142747440293       0.89882027922623098       -2.0326311898289213     
 H   0.81848662711605913      -0.26626591924416138       -1.4953261899689294     
 H  -0.88592963553323378      -0.71888085180015893       0.97372849217589297     
 H   0.42045004544499315       0.27722974922750548       0.72468125296720953     
           6
 Step:        3199 Time (fs):   2.3214032266661526     
 O    4.2585359693805801E-002  0.33167036499253133       -1.3247256290433196     
 O   -4.4343096229647730E-002 -0.34355144610700616        1.4404084256684557     
 H  -0.32624374310856857       0.89825542911453826       -2.0329821646266693     
 H   0.82188979852829103      -0.26838573675932020       -1.4981388464356342     
 H  -0.88889508677650286      -0.72020371633558244       0.97204826043202286     
 H   0.42110694377536256       0.27879926265740240       0.72217770759976418     
           6
 Step:        3299 Time (fs):   2.3939697545394303     
 O    4.2334878249676695E-002  0.33181015422693966       -1.3244464677033962     
 O   -4.4225004246009655E-002 -0.34354126030058280        1.4405981774411594     
 H  -0.32517055802653738       0.89769065552027960       -2.0333649091643373     
 H   0.82526402074571104      -0.27046758768377677       -1.5010042121243556     
 H  -0.89186698184850155      -0.72152623944852978       0.97035740462263198     
 H   0.42175584442370073       0.28038387195634651       0.71963480710517380     
           6
 Step:        3399 Time (fs):   2.4665362824127079     
 O    4.2086697832803520E-002  0.33194660066772580       -1.3241588254126495     
 O   -4.4108124129718283E-002 -0.34353216739036646        1.4407888479040929     
 H  -0.32407753659793143       0.89713246455422291       -2.0337754233169414     
 H   0.82859748779031017      -0.27249979344538566       -1.5039159224146639     
 H  -0.89484597126621890      -0.72285713692225606       0.96865561181032289     
 H   0.42239683785776955       0.28197529035534835       0.71704181883710871     
           6
 Step:        3499 Time (fs):   2.5391028102859856     
 O    4.1840792261700323E-002  0.33207889074618480       -1.3238616465334971     
 O   -4.3991767638631607E-002 -0.34352289990671220        1.4409800613964869     
 H  -0.32296887092173626       0.89657781180972884       -2.0342002314434313     
 H   0.83187851698924276      -0.27447103000394324       -1.5068766377062461     
 H  -0.89781656024689294      -0.72418111265251639       0.96695096972969630     
 H   0.42302303485431669       0.28357972395510095       0.71440348622611660     
           6
 Step:        3599 Time (fs):   2.6116693381592633     
 O    4.1598578776195480E-002  0.33220597552051945       -1.3235568654038312     
 O   -4.3876526593098000E-002 -0.34351297165045624        1.4411705370550094     
 H  -0.32183419454160200       0.89601800037982160       -2.0346442159796760     
 H   0.83510518643393117      -0.27638882876022891       -1.5098817884757580     
 H  -0.90077382147566509      -0.72549593329408191       0.96524741861505003     
 H   0.42363813974997466       0.28519519234156698       0.71172281429376660     
           6
 Step:        3699 Time (fs):   2.6842358660325409     
 O    4.1360341957081187E-002  0.33232892440755657       -1.3232458870949231     
 O   -4.3763442462070257E-002 -0.34350306915189988        1.4413614760901832     
 H  -0.32068042651113388       0.89545767697521750       -2.0351237445444070     
 H   0.83827407182090297      -0.27824898346029614       -1.5129353873806881     
 H  -0.90371870896005080      -0.72681068925908232       0.96354804977452690     
 H   0.42423581683051170       0.28680634774164071       0.70900435983774968     
           6
 Step:        3799 Time (fs):   2.7568023939058186     
 O    4.1125689813121515E-002  0.33244651622657906       -1.3229283919943344     
 O   -4.3650094005332721E-002 -0.34349309405859424        1.4415502342263500     
 H  -0.31951180258130268       0.89490044818452619       -2.0356374815240321     
 H   0.84137000422677100      -0.28004479204234484       -1.5160371552922400     
 H  -0.90662852738793276      -0.72811227227820474       0.96186202610906468     
 H   0.42480881333403264       0.28840702143030805       0.70626893749350428     
           6
 Step:        3899 Time (fs):   2.8293689217790963     
 O    4.0895112416554663E-002  0.33255879374701031       -1.3226055257796756     
 O   -4.3538245638605616E-002 -0.34348061688948961        1.4417374834772645     
 H  -0.31832450894422043       0.89434091069747845       -2.0361828489837217     
 H   0.84439433104513972      -0.28177026650717157       -1.5191843384892709     
 H  -0.90951707740564502      -0.72940368156424018       0.96017985407088435     
 H   0.42536323311985824       0.29000518217424737       0.70350299800878668     
           6
 Step:        3999 Time (fs):   2.9019354496523739     
 O    4.0668986798317028E-002  0.33266610371241506       -1.3222756194467302     
 O   -4.3428066828174280E-002 -0.34346837683595188        1.4419215503872715     
 H  -0.31711689030718165       0.89378844728654649       -2.0367599484482359     
 H   0.84735535745004564      -0.28343001005559182       -1.5223705656831894     
 H  -0.91238531835216330      -0.73069061677779612       0.95849831253674111     
 H   0.42589621940598987       0.29159472971254258       0.70070350261057779     
           6
 Step:        4099 Time (fs):   2.9745019775256516     
 O    4.0448872941423547E-002  0.33276636490171835       -1.3219368633931368     
 O   -4.3320091952991732E-002 -0.34345562405575653        1.4421048597293318     
 H  -0.31588959114264886       0.89324184571262599       -2.0373640483363622     
 H   0.85023657502458405      -0.28501460984024751       -1.5255876047787997     
 H  -0.91521544195614035      -0.73196239893216808       0.95683322405804339     
 H   0.42640622533807643       0.29317767038245746       0.69787959923997600     
           6
 Step:        4199 Time (fs):   3.0470685053989293     
 O    4.0233818843622857E-002  0.33286076362968692       -1.3215908642712220     
 O   -4.3213186040485616E-002 -0.34344232809417430        1.4422879067995353     
 H  -0.31464666754651932       0.89270760557548889       -2.0379920298825409     
 H   0.85301878972205269      -0.28650691703945047       -1.5288327305596174     
 H  -0.91798849280914863      -0.73320997559215662       0.95519126503266216     
 H   0.42688950629142691       0.29474972891301049       0.69503048355770869     
           6
 Step:        4299 Time (fs):   3.1196350332722069     
 O    4.0023780788095091E-002  0.33294898650224347       -1.3212366492654541     
 O   -4.3109047122023861E-002 -0.34342997046307439        1.4424690590756708     
 H  -0.31338953236288403       0.89218218113713987       -2.0386445081906950     
 H   0.85569634124892291      -0.28790808356245401       -1.5321064884316369     
 H  -0.92073142253249218      -0.73444882764962272       0.95355685729062301     
 H   0.42735108985420922       0.29631483069523834       0.69214650960079560     
           6
 Step:        4399 Time (fs):   3.1922015611454846     
 O    3.9820769553006632E-002  0.33302968653563142       -1.3208760095194361     
 O   -4.3007541342866273E-002 -0.34341586289222448        1.4426469949567597     
 H  -0.31211356879096797       0.89165760080255418       -2.0393312932099938     
 H   0.85828390482372729      -0.28923545975892412       -1.5354100140540865     
 H  -0.92342813236226207      -0.73566505515972036       0.95194338563283309     
 H   0.42777701831844728       0.29786355028318523       0.68924793518115302     
           6
 Step:        4499 Time (fs):   3.2647680890187623     
 O    3.9623474437465639E-002  0.33310446884110695       -1.3205111777978893     
 O   -4.2907447696257490E-002 -0.34340075923654662        1.4428185143125449     
 H  -0.31081623335961034       0.89113506248865548       -2.0400525954423614     
 H   0.86077649825857827      -0.29048022409626473       -1.5387448122364955     
 H  -0.92607360359258228      -0.73686093664776831       0.95034912102997882     
 H   0.42817459442840955       0.29939566544635077       0.68633580037961206     
           6
 Step:        4599 Time (fs):   3.3373346168920399     
 O    3.9432133474224786E-002  0.33317303662895581       -1.3201415039722411     
 O   -4.2809454166714909E-002 -0.34338553168805314        1.4429884868077349     
 H  -0.30950624735778465       0.89062131411743273       -2.0408134815757557     
 H   0.86316749607673893      -0.29163856074248518       -1.5421124351698616     
 H  -0.92865518573103856      -0.73803135866347780       0.94878490708520435     
 H   0.42853232181353085       0.30089632478581219       0.68342455600600571     
           6
 Step:        4699 Time (fs):   3.4099011447653176     
 O    3.9247716816990366E-002  0.33323369989366580       -1.3197652571658200     
 O   -4.2713903997454873E-002 -0.34336959412220502        1.4431545375797743     
 H  -0.30818150228025198       0.89011243016994701       -2.0416029429450262     
 H   0.86545572839233031      -0.29270361646092224       -1.5455017778332754     
 H  -0.93118318388848043      -0.73917751224393990       0.94725398617033585     
 H   0.42884813201797173       0.30237463790886066       0.68050600529194860     
           6
 Step:        4799 Time (fs):   3.4824676726385952     
 O    3.9071104689176295E-002  0.33328668104544618       -1.3193830816772543     
 O   -4.2620755902189514E-002 -0.34335294424581281        1.4433158733962901     
 H  -0.30683967987249877       0.88961479745767369       -2.0424204295540949     
 H   0.86762861525066981      -0.29366539074480030       -1.5489075984144671     
 H  -0.93364451712865515      -0.74028700217499133       0.94574870582017734     
 H   0.42912720310773089       0.30383723787597777       0.67757468795119280     
           6
 Step:        4899 Time (fs):   3.5550342005118729     
 O    3.8901627317532966E-002  0.33333234678128104       -1.3189933209734466     
 O   -4.2530183765960704E-002 -0.34333709181991762        1.4434730136240554     
 H  -0.30548222067559139       0.88913011981315415       -2.0432633424751430     
 H   0.86967822177739618      -0.29452224352451861       -1.5523258084745994     
 H  -0.93605275345414207      -0.74137155536974830       0.94426611353822965     
 H   0.42937898517392137       0.30528527762370855       0.67461752113451046     
           6
 Step:        4999 Time (fs):   3.6276007283851506     
 O    3.8739472361695636E-002  0.33337092186124390       -1.3185963850534748     
 O   -4.2443693246696598E-002 -0.34332230929610474        1.4436269826585604     
 H  -0.30411053552412354       0.88865748049670579       -2.0441374386135780     
 H   0.87160943519955014      -0.29527987546950801       -1.5557511783312024     
 H  -0.93839208095793136      -0.74242091098197516       0.94281520816674302     
 H   0.42958916190598306       0.30671620265056415       0.67165078680272006     
           6
 Step:        5099 Time (fs):   3.7001672562584282     
 O    3.8585002100098492E-002  0.33340113132359911       -1.3181928954952147     
 O   -4.2359369591967080E-002 -0.34330676324660364        1.4437760566971745     
 H  -0.30272949213670103       0.88819565781176968       -2.0450368281098110     
 H   0.87342549914469503      -0.29593840753009426       -1.5591931017244736     
 H  -0.94066248397373242      -0.74343249908964193       0.94140394976520880     
 H   0.42975292252419350       0.30812565681289483       0.66868789829049202     
           6
 Step:        5199 Time (fs):   3.7727337841317059     
 O    3.8438472257062428E-002  0.33342274104252489       -1.3177854747812205     
 O   -4.2275817894157804E-002 -0.34329092469308836        1.4439203697132741     
 H  -0.30133767609154399       0.88774035974292786       -2.0459683825741188     
 H   0.87512484115275957      -0.29649665024983879       -1.5626545124429119     
 H  -0.94285115622730420      -0.74440582543702105       0.94003638862566730     
 H   0.42986697621854564       0.30949754079120839       0.66573329865840580     
           6
 Step:        5299 Time (fs):   3.8453003120049836     
 O    3.8299765464770021E-002  0.33343712203171405       -1.3173742794172334     
 O   -4.2195054192160200E-002 -0.34327472755386967        1.4440574732521614     
 H  -0.29993021204089898       0.88728865297582504       -2.0469389955363577     
 H   0.87669857586724576      -0.29695384397631269       -1.5661281981750319     
 H  -0.94497671377950176      -0.74534515601142104       0.93869891589147292     
 H   0.42993889983238082       0.31084264246883103       0.66277995284446301     
           6
 Step:        5399 Time (fs):   3.9178668398782612     
 O    3.8169504609673256E-002  0.33344343861375597       -1.3169584994594650     
 O   -4.2118136169752227E-002 -0.34325746296377030        1.4441879004122282     